# vtk DataFile Version 3.0
vtk output
ASCII
DATASET POLYDATA
POINTS 350 float
29.6667 14.6267 0 29.787 14.6191 0 29.9054 14.5965 0 
30.0201 14.5593 0 30.1292 14.5079 0 30.2309 14.4433 0 
30.3238 14.3665 0 30.4064 14.2786 0 30.4772 14.1811 0 
30.5353 14.0754 0 30.5797 13.9633 0 30.6097 13.8466 0 
30.6248 13.7269 0 30.6248 13.6064 0 30.6097 13.4868 0 
30.5797 13.37 0 30.5353 13.2579 0 30.4772 13.1523 0 
30.4064 13.0547 0 30.3238 12.9669 0 30.2309 12.89 0 
30.1292 12.8254 0 30.0201 12.7741 0 29.9054 12.7368 0 
29.787 12.7142 0 29.6667 12.7067 0 29.5463 12.7142 0 
29.4279 12.7368 0 29.3133 12.7741 0 29.2042 12.8254 0 
29.1024 12.89 0 29.0095 12.9669 0 28.927 13.0547 0 
28.8561 13.1523 0 28.798 13.2579 0 28.7537 13.37 0 
28.7237 13.4868 0 28.7086 13.6064 0 28.7086 13.7269 0 
28.7237 13.8466 0 28.7537 13.9633 0 28.798 14.0754 0 
28.8561 14.1811 0 28.927 14.2786 0 29.0095 14.3665 0 
29.1024 14.4433 0 29.2042 14.5079 0 29.3133 14.5593 0 
29.4279 14.5965 0 29.5463 14.6191 0 42.3333 22.6267 0 
42.4537 22.6191 0 42.5721 22.5965 0 42.6867 22.5593 0 
42.7958 22.5079 0 42.8976 22.4433 0 42.9905 22.3665 0 
43.073 22.2786 0 43.1439 22.1811 0 43.202 22.0754 0 
43.2463 21.9633 0 43.2763 21.8466 0 43.2914 21.7269 0 
43.2914 21.6064 0 43.2763 21.4868 0 43.2463 21.37 0 
43.202 21.2579 0 43.1439 21.1523 0 43.073 21.0547 0 
42.9905 20.9669 0 42.8976 20.89 0 42.7958 20.8254 0 
42.6867 20.7741 0 42.5721 20.7368 0 42.4537 20.7142 0 
42.3333 20.7067 0 42.213 20.7142 0 42.0946 20.7368 0 
41.9799 20.7741 0 41.8708 20.8254 0 41.7691 20.89 0 
41.6762 20.9669 0 41.5936 21.0547 0 41.5228 21.1523 0 
41.4647 21.2579 0 41.4203 21.37 0 41.3903 21.4868 0 
41.3752 21.6064 0 41.3752 21.7269 0 41.3903 21.8466 0 
41.4203 21.9633 0 41.4647 22.0754 0 41.5228 22.1811 0 
41.5936 22.2786 0 41.6762 22.3665 0 41.7691 22.4433 0 
41.8708 22.5079 0 41.9799 22.5593 0 42.0946 22.5965 0 
42.213 22.6191 0 43.3333 37.9533 0 43.4537 37.9458 0 
43.5721 37.9232 0 43.6867 37.8859 0 43.7958 37.8346 0 
43.8976 37.77 0 43.9905 37.6931 0 44.073 37.6053 0 
44.1439 37.5077 0 44.202 37.4021 0 44.2463 37.29 0 
44.2763 37.1732 0 44.2914 37.0536 0 44.2914 36.9331 0 
44.2763 36.8134 0 44.2463 36.6967 0 44.202 36.5846 0 
44.1439 36.4789 0 44.073 36.3814 0 43.9905 36.2935 0 
43.8976 36.2167 0 43.7958 36.1521 0 43.6867 36.1007 0 
43.5721 36.0635 0 43.4537 36.0409 0 43.3333 36.0333 0 
43.213 36.0409 0 43.0946 36.0635 0 42.9799 36.1007 0 
42.8708 36.1521 0 42.7691 36.2167 0 42.6762 36.2935 0 
42.5936 36.3814 0 42.5228 36.4789 0 42.4647 36.5846 0 
42.4203 36.6967 0 42.3903 36.8134 0 42.3752 36.9331 0 
42.3752 37.0536 0 42.3903 37.1732 0 42.4203 37.29 0 
42.4647 37.4021 0 42.5228 37.5077 0 42.5936 37.6053 0 
42.6762 37.6931 0 42.7691 37.77 0 42.8708 37.8346 0 
42.9799 37.8859 0 43.0946 37.9232 0 43.213 37.9458 0 
28.3333 46.9283 0 28.4931 46.9183 0 28.6504 46.8883 0 
28.8027 46.8388 0 28.9476 46.7706 0 29.0828 46.6848 0 
29.2061 46.5828 0 29.3157 46.466 0 29.4099 46.3365 0 
29.487 46.1962 0 29.5459 46.0473 0 29.5858 45.8922 0 
29.6058 45.7334 0 29.6058 45.5733 0 29.5858 45.4144 0 
29.5459 45.2593 0 29.487 45.1105 0 29.4099 44.9702 0 
29.3157 44.8406 0 29.2061 44.7239 0 29.0828 44.6218 0 
28.9476 44.536 0 28.8027 44.4679 0 28.6504 44.4184 0 
28.4931 44.3884 0 28.3333 44.3783 0 28.1735 44.3884 0 
28.0163 44.4184 0 27.864 44.4679 0 27.7191 44.536 0 
27.5839 44.6218 0 27.4605 44.7239 0 27.3509 44.8406 0 
27.2568 44.9702 0 27.1797 45.1105 0 27.1207 45.2593 0 
27.0809 45.4144 0 27.0609 45.5733 0 27.0609 45.7334 0 
27.0809 45.8922 0 27.1207 46.0473 0 27.1797 46.1962 0 
27.2568 46.3365 0 27.3509 46.466 0 27.4605 46.5828 0 
27.5839 46.6848 0 27.7191 46.7706 0 27.864 46.8388 0 
28.0163 46.8883 0 28.1735 46.9183 0 13.3333 37.9533 0 
13.4537 37.9458 0 13.5721 37.9232 0 13.6867 37.8859 0 
13.7958 37.8346 0 13.8976 37.77 0 13.9905 37.6931 0 
14.073 37.6053 0 14.1439 37.5077 0 14.202 37.4021 0 
14.2463 37.29 0 14.2763 37.1732 0 14.2914 37.0536 0 
14.2914 36.9331 0 14.2763 36.8134 0 14.2463 36.6967 0 
14.202 36.5846 0 14.1439 36.4789 0 14.073 36.3814 0 
13.9905 36.2935 0 13.8976 36.2167 0 13.7958 36.1521 0 
13.6867 36.1007 0 13.5721 36.0635 0 13.4537 36.0409 0 
13.3333 36.0333 0 13.213 36.0409 0 13.0946 36.0635 0 
12.9799 36.1007 0 12.8708 36.1521 0 12.7691 36.2167 0 
12.6762 36.2935 0 12.5936 36.3814 0 12.5228 36.4789 0 
12.4647 36.5846 0 12.4203 36.6967 0 12.3903 36.8134 0 
12.3752 36.9331 0 12.3752 37.0536 0 12.3903 37.1732 0 
12.4203 37.29 0 12.4647 37.4021 0 12.5228 37.5077 0 
12.5936 37.6053 0 12.6762 37.6931 0 12.7691 37.77 0 
12.8708 37.8346 0 12.9799 37.8859 0 13.0946 37.9232 0 
13.213 37.9458 0 12 23.96 0 12.1203 23.9524 0 
12.2387 23.9298 0 12.3534 23.8926 0 12.4625 23.8413 0 
12.5643 23.7767 0 12.6572 23.6998 0 12.7397 23.6119 0 
12.8106 23.5144 0 12.8686 23.4087 0 12.913 23.2967 0 
12.943 23.1799 0 12.9581 23.0603 0 12.9581 22.9397 0 
12.943 22.8201 0 12.913 22.7033 0 12.8686 22.5913 0 
12.8106 22.4856 0 12.7397 22.3881 0 12.6572 22.3002 0 
12.5643 22.2233 0 12.4625 22.1587 0 12.3534 22.1074 0 
12.2387 22.0702 0 12.1203 22.0476 0 12 22.04 0 
11.8797 22.0476 0 11.7613 22.0702 0 11.6466 22.1074 0 
11.5375 22.1587 0 11.4357 22.2233 0 11.3428 22.3002 0 
11.2603 22.3881 0 11.1894 22.4856 0 11.1314 22.5913 0 
11.087 22.7033 0 11.057 22.8201 0 11.0419 22.9397 0 
11.0419 23.0603 0 11.057 23.1799 0 11.087 23.2967 0 
11.1314 23.4087 0 11.1894 23.5144 0 11.2603 23.6119 0 
11.3428 23.6998 0 11.4357 23.7767 0 11.5375 23.8413 0 
11.6466 23.8926 0 11.7613 23.9298 0 11.8797 23.9524 0 
19.3333 15.96 0 19.4537 15.9524 0 19.5721 15.9298 0 
19.6867 15.8926 0 19.7958 15.8413 0 19.8976 15.7767 0 
19.9905 15.6998 0 20.073 15.6119 0 20.1439 15.5144 0 
20.202 15.4087 0 20.2463 15.2967 0 20.2763 15.1799 0 
20.2914 15.0603 0 20.2914 14.9397 0 20.2763 14.8201 0 
20.2463 14.7033 0 20.202 14.5913 0 20.1439 14.4856 0 
20.073 14.3881 0 19.9905 14.3002 0 19.8976 14.2233 0 
19.7958 14.1587 0 19.6867 14.1074 0 19.5721 14.0702 0 
19.4537 14.0476 0 19.3333 14.04 0 19.213 14.0476 0 
19.0946 14.0702 0 18.9799 14.1074 0 18.8708 14.1587 0 
18.7691 14.2233 0 18.6762 14.3002 0 18.5936 14.3881 0 
18.5228 14.4856 0 18.4647 14.5913 0 18.4203 14.7033 0 
18.3903 14.8201 0 18.3752 14.9397 0 18.3752 15.0603 0 
18.3903 15.1799 0 18.4203 15.2967 0 18.4647 15.4087 0 
18.5228 15.5144 0 18.5936 15.6119 0 18.6762 15.6998 0 
18.7691 15.7767 0 18.8708 15.8413 0 18.9799 15.8926 0 
19.0946 15.9298 0 19.213 15.9524 0 
LINES 7 364
51 0 1 2 3 4 5 6 7 8 9 10 11 12 13 14 15 16 17 18 19 20 21 22 23 24 25 26 27 28 29 30 31 32 33 34 35 36 37 38 39 40 41 42 43 44 45 46 47 48 49 0 
51 50 51 52 53 54 55 56 57 58 59 60 61 62 63 64 65 66 67 68 69 70 71 72 73 74 75 76 77 78 79 80 81 82 83 84 85 86 87 88 89 90 91 92 93 94 95 96 97 98 99 50 
51 100 101 102 103 104 105 106 107 108 109 110 111 112 113 114 115 116 117 118 119 120 121 122 123 124 125 126 127 128 129 130 131 132 133 134 135 136 137 138 139 140 141 142 143 144 145 146 147 148 149 100 
51 150 151 152 153 154 155 156 157 158 159 160 161 162 163 164 165 166 167 168 169 170 171 172 173 174 175 176 177 178 179 180 181 182 183 184 185 186 187 188 189 190 191 192 193 194 195 196 197 198 199 150 
51 200 201 202 203 204 205 206 207 208 209 210 211 212 213 214 215 216 217 218 219 220 221 222 223 224 225 226 227 228 229 230 231 232 233 234 235 236 237 238 239 240 241 242 243 244 245 246 247 248 249 200 
51 250 251 252 253 254 255 256 257 258 259 260 261 262 263 264 265 266 267 268 269 270 271 272 273 274 275 276 277 278 279 280 281 282 283 284 285 286 287 288 289 290 291 292 293 294 295 296 297 298 299 250 
51 300 301 302 303 304 305 306 307 308 309 310 311 312 313 314 315 316 317 318 319 320 321 322 323 324 325 326 327 328 329 330 331 332 333 334 335 336 337 338 339 340 341 342 343 344 345 346 347 348 349 300 

POLYGONS 7 357
50 0 1 2 3 4 5 6 7 8 9 10 11 12 13 14 15 16 17 18 19 20 21 22 23 24 25 26 27 28 29 30 31 32 33 34 35 36 37 38 39 40 41 42 43 44 45 46 47 48 49 
50 50 51 52 53 54 55 56 57 58 59 60 61 62 63 64 65 66 67 68 69 70 71 72 73 74 75 76 77 78 79 80 81 82 83 84 85 86 87 88 89 90 91 92 93 94 95 96 97 98 99 
50 100 101 102 103 104 105 106 107 108 109 110 111 112 113 114 115 116 117 118 119 120 121 122 123 124 125 126 127 128 129 130 131 132 133 134 135 136 137 138 139 140 141 142 143 144 145 146 147 148 149 
50 150 151 152 153 154 155 156 157 158 159 160 161 162 163 164 165 166 167 168 169 170 171 172 173 174 175 176 177 178 179 180 181 182 183 184 185 186 187 188 189 190 191 192 193 194 195 196 197 198 199 
50 200 201 202 203 204 205 206 207 208 209 210 211 212 213 214 215 216 217 218 219 220 221 222 223 224 225 226 227 228 229 230 231 232 233 234 235 236 237 238 239 240 241 242 243 244 245 246 247 248 249 
50 250 251 252 253 254 255 256 257 258 259 260 261 262 263 264 265 266 267 268 269 270 271 272 273 274 275 276 277 278 279 280 281 282 283 284 285 286 287 288 289 290 291 292 293 294 295 296 297 298 299 
50 300 301 302 303 304 305 306 307 308 309 310 311 312 313 314 315 316 317 318 319 320 321 322 323 324 325 326 327 328 329 330 331 332 333 334 335 336 337 338 339 340 341 342 343 344 345 346 347 348 349 

POINT_DATA 350
COLOR_SCALARS colorsp 3
0.752941 0.752941 0.752941 0.752941 0.752941 0.752941 0.752941 0.752941 0.752941 
0.752941 0.752941 0.752941 0.752941 0.752941 0.752941 
0.752941 0.752941 0.752941 0.752941 0.752941 0.752941 
0.752941 0.752941 0.752941 0.752941 0.752941 0.752941 
0.752941 0.752941 0.752941 0.752941 0.752941 0.752941 
0.752941 0.752941 0.752941 0.752941 0.752941 0.752941 
0.752941 0.752941 0.752941 0.752941 0.752941 0.752941 
0.752941 0.752941 0.752941 0.752941 0.752941 0.752941 
0.752941 0.752941 0.752941 0.752941 0.752941 0.752941 
0.752941 0.752941 0.752941 0.752941 0.752941 0.752941 
0.752941 0.752941 0.752941 0.752941 0.752941 0.752941 
0.752941 0.752941 0.752941 0.752941 0.752941 0.752941 
0.752941 0.752941 0.752941 0.752941 0.752941 0.752941 
0.752941 0.752941 0.752941 0.752941 0.752941 0.752941 
0.752941 0.752941 0.752941 0.752941 0.752941 0.752941 
0.752941 0.752941 0.752941 0.752941 0.752941 0.752941 
0.752941 0.752941 0.752941 0.752941 0.752941 0.752941 
0.752941 0.752941 0.752941 0.752941 0.752941 0.752941 
0.752941 0.752941 0.752941 0.752941 0.752941 0.752941 
0.752941 0.752941 0.752941 0.752941 0.752941 0.752941 
0.752941 0.752941 0.752941 0.752941 0.752941 0.752941 
0.752941 0.752941 0.752941 0.752941 0.752941 0.752941 
0.752941 0.752941 0.752941 0.752941 0.752941 0.752941 
0.752941 0.752941 0.752941 0.752941 0.752941 0.752941 
0.752941 0.752941 0.752941 0.752941 0.752941 0.752941 
0.752941 0.752941 0.752941 0.752941 0.752941 0.752941 
0.752941 0.752941 0.752941 0.752941 0.752941 0.752941 
0.752941 0.752941 0.752941 0.752941 0.752941 0.752941 
0.752941 0.752941 0.752941 0.752941 0.752941 0.752941 
0.752941 0.752941 0.752941 0.752941 0.752941 0.752941 
0.752941 0.752941 0.752941 0.752941 0.752941 0.752941 
0.752941 0.752941 0.752941 0.752941 0.752941 0.752941 
0.752941 0.752941 0.752941 0.752941 0.752941 0.752941 
0.752941 0.752941 0.752941 0.752941 0.752941 0.752941 
0.752941 0.752941 0.752941 0.752941 0.752941 0.752941 
0.752941 0.752941 0.752941 0.752941 0.752941 0.752941 
0.752941 0.752941 0.752941 0.752941 0.752941 0.752941 
0.752941 0.752941 0.752941 0.752941 0.752941 0.752941 
0.752941 0.752941 0.752941 0.752941 0.752941 0.752941 
0.752941 0.752941 0.752941 0.752941 0.752941 0.752941 
0.752941 0.752941 0.752941 0.752941 0.752941 0.752941 
0.752941 0.752941 0.752941 0.752941 0.752941 0.752941 
0.752941 0.752941 0.752941 0.752941 0.752941 0.752941 
0.752941 0.752941 0.752941 0.752941 0.752941 0.752941 
0.752941 0.752941 0.752941 0.752941 0.752941 0.752941 
0.752941 0.752941 0.752941 0.752941 0.752941 0.752941 
0.752941 0.752941 0.752941 0.752941 0.752941 0.752941 
0.752941 0.752941 0.752941 0.752941 0.752941 0.752941 
0.752941 0.752941 0.752941 0.752941 0.752941 0.752941 
0.752941 0.752941 0.752941 0.752941 0.752941 0.752941 
0.752941 0.752941 0.752941 0.752941 0.752941 0.752941 
0.752941 0.752941 0.752941 0.752941 0.752941 0.752941 
0.752941 0.752941 0.752941 0.752941 0.752941 0.752941 
0.752941 0.752941 0.752941 0.752941 0.752941 0.752941 
0.752941 0.752941 0.752941 0.752941 0.752941 0.752941 
0.752941 0.752941 0.752941 0.752941 0.752941 0.752941 
0.752941 0.752941 0.752941 0.752941 0.752941 0.752941 
0.752941 0.752941 0.752941 0.752941 0.752941 0.752941 
0.752941 0.752941 0.752941 0.752941 0.752941 0.752941 
0.752941 0.752941 0.752941 0.752941 0.752941 0.752941 
0.752941 0.752941 0.752941 0.752941 0.752941 0.752941 
0.752941 0.752941 0.752941 0.752941 0.752941 0.752941 
0.752941 0.752941 0.752941 0.752941 0.752941 0.752941 
0.752941 0.752941 0.752941 0.752941 0.752941 0.752941 
0.752941 0.752941 0.752941 0.752941 0.752941 0.752941 
0.752941 0.752941 0.752941 0.752941 0.752941 0.752941 
0.752941 0.752941 0.752941 0.752941 0.752941 0.752941 
0.752941 0.752941 0.752941 0.752941 0.752941 0.752941 
0.752941 0.752941 0.752941 0.752941 0.752941 0.752941 
0.752941 0.752941 0.752941 0.752941 0.752941 0.752941 
0.752941 0.752941 0.752941 0.752941 0.752941 0.752941 
0.752941 0.752941 0.752941 0.752941 0.752941 0.752941 
0.752941 0.752941 0.752941 0.752941 0.752941 0.752941 
0.752941 0.752941 0.752941 0.752941 0.752941 0.752941 
0.752941 0.752941 0.752941 1 0.4 0 
1 0.4 0 1 0.4 0 
1 0.4 0 1 0.4 0 
1 0.4 0 1 0.4 0 
1 0.4 0 1 0.4 0 
1 0.4 0 1 0.4 0 
1 0.4 0 1 0.4 0 
1 0.4 0 1 0.4 0 
1 0.4 0 1 0.4 0 
1 0.4 0 1 0.4 0 
1 0.4 0 1 0.4 0 
1 0.4 0 1 0.4 0 
1 0.4 0 1 0.4 0 
1 0.4 0 1 0.4 0 
1 0.4 0 1 0.4 0 
1 0.4 0 1 0.4 0 
1 0.4 0 1 0.4 0 
1 0.4 0 1 0.4 0 
1 0.4 0 1 0.4 0 
1 0.4 0 1 0.4 0 
1 0.4 0 1 0.4 0 
1 0.4 0 1 0.4 0 
1 0.4 0 1 0.4 0 
1 0.4 0 1 0.4 0 
1 0.4 0 1 0.4 0 
1 0.4 0 0.752941 0.752941 0.752941 
0.752941 0.752941 0.752941 0.752941 0.752941 0.752941 
0.752941 0.752941 0.752941 0.752941 0.752941 0.752941 
0.752941 0.752941 0.752941 0.752941 0.752941 0.752941 
0.752941 0.752941 0.752941 0.752941 0.752941 0.752941 
0.752941 0.752941 0.752941 0.752941 0.752941 0.752941 
0.752941 0.752941 0.752941 0.752941 0.752941 0.752941 
0.752941 0.752941 0.752941 0.752941 0.752941 0.752941 
0.752941 0.752941 0.752941 0.752941 0.752941 0.752941 
0.752941 0.752941 0.752941 0.752941 0.752941 0.752941 
0.752941 0.752941 0.752941 0.752941 0.752941 0.752941 
0.752941 0.752941 0.752941 0.752941 0.752941 0.752941 
0.752941 0.752941 0.752941 0.752941 0.752941 0.752941 
0.752941 0.752941 0.752941 0.752941 0.752941 0.752941 
0.752941 0.752941 0.752941 0.752941 0.752941 0.752941 
0.752941 0.752941 0.752941 0.752941 0.752941 0.752941 
0.752941 0.752941 0.752941 0.752941 0.752941 0.752941 
0.752941 0.752941 0.752941 0.752941 0.752941 0.752941 
0.752941 0.752941 0.752941 0.752941 0.752941 0.752941 
0.752941 0.752941 0.752941 0.752941 0.752941 0.752941 
0.752941 0.752941 0.752941 0.752941 0.752941 0.752941 
0.752941 0.752941 0.752941 0.752941 0.752941 0.752941 
0.752941 0.752941 0.752941 0.752941 0.752941 0.752941 
0.752941 0.752941 0.752941 0.752941 0.752941 0.752941 
0.752941 0.752941 0.752941 0.752941 0.752941 0.752941 
0.752941 0.752941 0.752941 0.752941 0.752941 0.752941 
0.752941 0.752941 0.752941 0.752941 0.752941 0.752941 
0.752941 0.752941 0.752941 0.752941 0.752941 0.752941 
0.752941 0.752941 0.752941 0.752941 0.752941 0.752941 
0.752941 0.752941 0.752941 0.752941 0.752941 0.752941 
0.752941 0.752941 0.752941 0.752941 0.752941 0.752941 
0.752941 0.752941 0.752941 0.752941 0.752941 0.752941 
0.752941 0.752941 0.752941 0.752941 0.752941 0.752941 
0.752941 0.752941 0.752941 0.752941 0.752941 0.752941 
0.752941 0.752941 0.752941 0.752941 0.752941 0.752941 
0.752941 0.752941 0.752941 0.752941 0.752941 0.752941 
0.752941 0.752941 0.752941 0.752941 0.752941 0.752941 
0.752941 0.752941 0.752941 0.752941 0.752941 0.752941 
0.752941 0.752941 0.752941 0.752941 0.752941 0.752941 
0.752941 0.752941 0.752941 0.752941 0.752941 0.752941 
0.752941 0.752941 0.752941 0.752941 0.752941 0.752941 
0.752941 0.752941 0.752941 0.752941 0.752941 0.752941 
0.752941 0.752941 0.752941 0.752941 0.752941 0.752941 
0.752941 0.752941 0.752941 0.752941 0.752941 0.752941 
0.752941 0.752941 0.752941 0.752941 0.752941 0.752941 
0.752941 0.752941 0.752941 0.752941 0.752941 0.752941 
0.752941 0.752941 0.752941 0.752941 0.752941 0.752941 
0.752941 0.752941 0.752941 0.752941 0.752941 0.752941 
0.752941 0.752941 0.752941 0.752941 0.752941 0.752941 
0.752941 0.752941 0.752941 0.752941 0.752941 0.752941 
0.752941 0.752941 0.752941 0.752941 0.752941 0.752941 
0.752941 0.752941 0.752941 0.752941 0.752941 0.752941 
0.752941 0.752941 0.752941 0.752941 0.752941 0.752941 
0.752941 0.752941 0.752941 0.752941 0.752941 0.752941 
0.752941 0.752941 0.752941 0.752941 0.752941 0.752941 
0.752941 0.752941 0.752941 0.752941 0.752941 0.752941 
0.752941 0.752941 0.752941 0.752941 0.752941 0.752941 
0.752941 0.752941 0.752941 0.752941 0.752941 0.752941 
0.752941 0.752941 0.752941 0.752941 0.752941 0.752941 
0.752941 0.752941 0.752941 0.752941 0.752941 0.752941 
0.752941 0.752941 0.752941 0.752941 0.752941 0.752941 
0.752941 0.752941 0.752941 0.752941 0.752941 0.752941 
0.752941 0.752941 0.752941 0.752941 0.752941 0.752941 
0.752941 0.752941 0.752941 0.752941 0.752941 0.752941 
0.752941 0.752941 0.752941 0.752941 0.752941 0.752941 
0.752941 0.752941 0.752941 0.752941 0.752941 0.752941 
0.752941 0.752941 0.752941 0.752941 0.752941 0.752941 
0.752941 0.752941 0.752941 0.752941 0.752941 0.752941 
0.752941 0.752941 0.752941 0.752941 0.752941 0.752941 
0.752941 0.752941 0.752941 0.752941 0.752941 0.752941 
0.752941 0.752941 0.752941 0.752941 0.752941 0.752941 
0.752941 0.752941 0.752941 0.752941 0.752941 0.752941 
0.752941 0.752941 0.752941 0.752941 0.752941 0.752941 
0.752941 0.752941 0.752941 0.752941 0.752941 0.752941 
0.752941 0.752941 0.752941 0.752941 0.752941 0.752941 
0.752941 0.752941 0.752941 
